/*--------------------------------*- C++ -*----------------------------------*\
  =========                 |
  \\      /  F ield         | OpenFOAM: The Open Source CFD Toolbox
   \\    /   O peration     | Website:  https://openfoam.org
    \\  /    A nd           | Version:  10
     \\/     M anipulation  |
\*---------------------------------------------------------------------------*/
FoamFile
{
    format      ascii;
    class       volScalarField;
    location    "0.2";
    object      D;
}
// * * * * * * * * * * * * * * * * * * * * * * * * * * * * * * * * * * * * * //

dimensions      [0 2 -1 0 0 0 0];

internalField   nonuniform List<scalar> 
400
(
0.509573
0.508728
0.507914
0.507151
0.506455
0.505842
0.505326
0.504916
0.504623
0.504452
0.504409
0.504496
0.504719
0.505078
0.505569
0.506185
0.50691
0.507726
0.508609
0.509532
0.508712
0.506166
0.503715
0.501415
0.499319
0.497474
0.495918
0.494685
0.4938
0.493282
0.493147
0.493408
0.494076
0.495154
0.496633
0.498486
0.500672
0.503133
0.505798
0.508586
0.507833
0.503554
0.499434
0.49557
0.49205
0.488951
0.486335
0.484258
0.482763
0.481884
0.481644
0.482069
0.483179
0.484981
0.48746
0.490574
0.494254
0.498403
0.502901
0.50761
0.506926
0.500856
0.495015
0.489541
0.484555
0.480162
0.476452
0.473499
0.471364
0.470095
0.469728
0.4703
0.471847
0.474379
0.477879
0.482293
0.487524
0.493436
0.499856
0.506585
0.505977
0.498037
0.4904
0.483246
0.476733
0.470992
0.466137
0.46226
0.45944
0.457741
0.457214
0.45791
0.45988
0.463148
0.467699
0.473469
0.480335
0.48812
0.496592
0.505485
0.504972
0.495053
0.48552
0.476597
0.468474
0.461312
0.455243
0.45038
0.446817
0.444635
0.443901
0.444685
0.447061
0.451071
0.456709
0.463906
0.472519
0.482325
0.493029
0.504283
0.503894
0.491853
0.480294
0.469485
0.459651
0.450976
0.443611
0.437684
0.433304
0.430571
0.42957
0.430394
0.433149
0.437903
0.444669
0.453381
0.463879
0.475898
0.489069
0.502947
0.502719
0.488374
0.474623
0.461784
0.450115
0.439818
0.431058
0.423974
0.41869
0.415323
0.413981
0.414783
0.417877
0.423369
0.431303
0.441632
0.454186
0.468658
0.484595
0.501436
0.501419
0.484531
0.468377
0.453332
0.439681
0.427639
0.417374
0.409031
0.402744
0.398648
0.396875
0.397578
0.400956
0.407167
0.416305
0.428358
0.443165
0.460382
0.479464
0.499699
0.499952
0.480208
0.461386
0.44392
0.428118
0.414195
0.402311
0.392603
0.38521
0.380281
0.377976
0.378487
0.382073
0.388964
0.399325
0.413208
0.430488
0.450797
0.47349
0.497674
0.498258
0.47524
0.453406
0.43326
0.41512
0.399179
0.385566
0.374398
0.365803
0.35994
0.356999
0.35721
0.360906
0.368406
0.379979
0.395777
0.415754
0.439555
0.466437
0.495274
0.496246
0.469379
0.444086
0.420948
0.400268
0.382183
0.36676
0.354067
0.344204
0.337328
0.333651
0.333449
0.337131
0.345127
0.357844
0.375593
0.398473
0.426206
0.457981
0.492383
0.49377
0.462238
0.432891
0.40639
0.382971
0.362655
0.345399
0.331182
0.320047
0.312127
0.307649
0.306925
0.310445
0.318764
0.33247
0.352108
0.378027
0.410146
0.447661
0.488828
0.490582
0.453184
0.418986
0.388691
0.362368
0.339823
0.320824
0.305202
0.292904
0.284007
0.278726
0.277404
0.280591
0.288982
0.303391
0.324687
0.353625
0.390525
0.434784
0.484333
0.486239
0.44114
0.401014
0.366473
0.337195
0.3126
0.292147
0.27544
0.262271
0.25262
0.246654
0.244718
0.247397
0.255517
0.270151
0.2926
0.324234
0.366107
0.418232
0.47842
0.479865
0.424159
0.376716
0.337589
0.305598
0.279474
0.258203
0.24104
0.227558
0.217613
0.211258
0.208804
0.21082
0.218236
0.232369
0.255039
0.288497
0.335022
0.396084
0.470156
0.469507
0.398489
0.342219
0.298708
0.264936
0.238445
0.217567
0.201055
0.188198
0.178664
0.172415
0.169707
0.171011
0.177229
0.189844
0.211201
0.244688
0.294392
0.364823
0.457457
0.449985
0.356366
0.290823
0.244866
0.212
0.187585
0.168977
0.154604
0.143563
0.135387
0.129944
0.127399
0.128088
0.132782
0.142894
0.160873
0.190881
0.239868
0.317713
0.434919
0.404507
0.280809
0.211804
0.170521
0.143671
0.124982
0.111348
0.101123
0.0934083
0.087735
0.0839307
0.0820663
0.0823274
0.085241
0.0918643
0.104223
0.126301
0.166297
0.241515
0.386244
0.266943
0.138575
0.0920553
0.0703643
0.0582331
0.0505307
0.0452177
0.0413672
0.0385196
0.0364453
0.0350538
0.0343533
0.0343984
0.0353766
0.0376926
0.0422011
0.0508864
0.0691422
0.114501
0.253521
)
;

boundaryField
{
    movingWall
    {
        type            calculated;
        value           uniform 0.01;
    }
    fixedWalls
    {
        type            calculated;
        value           uniform 0.51;
    }
    frontAndBack
    {
        type            empty;
    }
}


// ************************************************************************* //
