/*--------------------------------*- C++ -*----------------------------------*\
  =========                 |
  \\      /  F ield         | OpenFOAM: The Open Source CFD Toolbox
   \\    /   O peration     | Website:  https://openfoam.org
    \\  /    A nd           | Version:  10
     \\/     M anipulation  |
\*---------------------------------------------------------------------------*/
FoamFile
{
    format      ascii;
    class       volScalarField;
    location    "0.2";
    object      T;
}
// * * * * * * * * * * * * * * * * * * * * * * * * * * * * * * * * * * * * * //

dimensions      [0 0 0 1 0 0 0];

internalField   nonuniform List<scalar> 
400
(
249.957
249.873
249.791
249.715
249.645
249.584
249.533
249.492
249.462
249.445
249.441
249.45
249.472
249.508
249.557
249.618
249.691
249.773
249.861
249.953
249.871
249.617
249.371
249.142
248.932
248.747
248.592
248.468
248.38
248.328
248.315
248.341
248.408
248.515
248.663
248.849
249.067
249.313
249.58
249.859
249.783
249.355
248.943
248.557
248.205
247.895
247.634
247.426
247.276
247.188
247.164
247.207
247.318
247.498
247.746
248.057
248.425
248.84
249.29
249.761
249.693
249.086
248.502
247.954
247.455
247.016
246.645
246.35
246.136
246.009
245.973
246.03
246.185
246.438
246.788
247.229
247.752
248.344
248.986
249.658
249.598
248.804
248.04
247.325
246.673
246.099
245.614
245.226
244.944
244.774
244.721
244.791
244.988
245.315
245.77
246.347
247.034
247.812
248.659
249.548
249.497
248.505
247.552
246.66
245.847
245.131
244.524
244.038
243.682
243.464
243.39
243.468
243.706
244.107
244.671
245.391
246.252
247.232
248.303
249.428
249.389
248.185
247.029
245.949
244.965
244.098
243.361
242.768
242.33
242.057
241.957
242.039
242.315
242.79
243.467
244.338
245.388
246.59
247.907
249.295
249.272
247.837
246.462
245.178
244.011
242.982
242.106
241.397
240.869
240.532
240.398
240.478
240.788
241.337
242.13
243.163
244.419
245.866
247.46
249.144
249.142
247.453
245.838
244.333
242.968
241.764
240.737
239.903
239.274
238.865
238.687
238.758
239.096
239.717
240.63
241.836
243.317
245.038
246.946
248.97
248.995
247.021
245.139
243.392
241.812
240.42
239.231
238.26
237.521
237.028
236.798
236.849
237.207
237.896
238.933
240.321
242.049
244.08
246.349
248.767
248.826
246.524
244.341
242.326
240.512
238.918
237.557
236.44
235.58
234.994
234.7
234.721
235.091
235.841
236.998
238.578
240.575
242.955
245.644
248.527
248.625
245.938
243.409
241.095
239.027
237.218
235.676
234.407
233.42
232.733
232.365
232.345
232.713
233.513
234.784
236.559
238.847
241.621
244.798
248.238
248.377
245.224
242.289
239.639
237.297
235.265
233.54
232.118
231.005
230.213
229.765
229.693
230.045
230.876
232.247
234.211
236.803
240.015
243.766
247.883
248.058
244.318
240.899
237.869
235.237
232.982
231.082
229.52
228.29
227.401
226.873
226.74
227.059
227.898
229.339
231.469
234.363
238.053
242.478
247.433
247.624
243.114
239.101
235.647
232.72
230.26
228.215
226.544
225.227
224.262
223.665
223.472
223.74
224.552
226.015
228.26
231.423
235.611
240.823
246.842
246.986
241.416
236.672
232.759
229.56
226.947
224.82
223.104
221.756
220.761
220.126
219.88
220.082
220.824
222.237
224.504
227.85
232.502
238.608
246.016
245.951
238.849
233.222
228.871
225.494
222.844
220.757
219.105
217.82
216.866
216.242
215.971
216.101
216.723
217.984
220.12
223.469
228.439
235.482
244.746
243.998
234.637
228.082
223.487
220.2
217.758
215.898
214.46
213.356
212.539
211.994
211.74
211.809
212.278
213.289
215.087
218.088
222.987
230.771
242.492
239.451
227.081
220.18
216.052
213.367
211.498
210.135
209.112
208.341
207.774
207.393
207.207
207.233
207.524
208.186
209.422
211.63
215.63
223.152
237.624
225.694
212.857
208.206
206.036
204.823
204.053
203.522
203.137
202.852
202.645
202.505
202.435
202.44
202.538
202.769
203.22
204.089
205.914
210.45
224.352
)
;

boundaryField
{
    movingWall
    {
        type            fixedValue;
        value           uniform 200;
    }
    fixedWalls
    {
        type            fixedValue;
        value           uniform 250;
    }
    frontAndBack
    {
        type            empty;
    }
}


// ************************************************************************* //
