/*--------------------------------*- C++ -*----------------------------------*\
  =========                 |
  \\      /  F ield         | OpenFOAM: The Open Source CFD Toolbox
   \\    /   O peration     | Website:  https://openfoam.org
    \\  /    A nd           | Version:  10
     \\/     M anipulation  |
\*---------------------------------------------------------------------------*/
FoamFile
{
    format      ascii;
    class       volScalarField;
    location    "0.3";
    object      D;
}
// * * * * * * * * * * * * * * * * * * * * * * * * * * * * * * * * * * * * * //

dimensions      [0 2 -1 0 0 0 0];

internalField   nonuniform List<scalar> 
400
(
0.509646
0.508946
0.50827
0.507633
0.507049
0.50653
0.506088
0.505732
0.50547
0.505309
0.505254
0.505312
0.505486
0.505779
0.50619
0.506711
0.507331
0.508033
0.508795
0.509594
0.508931
0.506816
0.504775
0.502852
0.501089
0.499523
0.498187
0.49711
0.496317
0.495828
0.49566
0.49583
0.496353
0.497236
0.498474
0.500047
0.501921
0.504044
0.506351
0.508771
0.508193
0.504623
0.501176
0.497931
0.494956
0.492313
0.490056
0.488234
0.486887
0.486051
0.485755
0.486028
0.486898
0.488378
0.490463
0.49312
0.496291
0.499888
0.503804
0.507913
0.50742
0.502322
0.497404
0.492775
0.488533
0.484762
0.481539
0.478928
0.476989
0.475774
0.475323
0.475683
0.476897
0.478988
0.48195
0.485743
0.490283
0.495448
0.501079
0.506995
0.506595
0.49987
0.493386
0.487287
0.481698
0.476728
0.472471
0.469012
0.466427
0.464784
0.464143
0.464564
0.466114
0.46883
0.472713
0.477714
0.483728
0.490593
0.498097
0.50599
0.505702
0.497216
0.489042
0.481359
0.47432
0.468056
0.462681
0.458297
0.454995
0.452863
0.451979
0.452427
0.4543
0.457658
0.462512
0.468814
0.476439
0.485182
0.494767
0.504867
0.50472
0.494302
0.48428
0.47487
0.466255
0.458584
0.451987
0.44658
0.442475
0.439777
0.438586
0.439015
0.441189
0.445202
0.451087
0.458802
0.468205
0.47905
0.490986
0.503591
0.503626
0.49106
0.478992
0.467681
0.457337
0.448125
0.440185
0.433648
0.428638
0.425282
0.423706
0.424055
0.426499
0.431175
0.438152
0.447405
0.458788
0.472008
0.486634
0.50212
0.502387
0.4874
0.473041
0.45962
0.44737
0.436466
0.427052
0.419263
0.413237
0.409121
0.40707
0.407264
0.409933
0.415268
0.423392
0.434318
0.447909
0.463833
0.481563
0.500404
0.500963
0.483201
0.466248
0.450468
0.436111
0.423352
0.412326
0.403163
0.396007
0.391023
0.388397
0.388351
0.39118
0.397151
0.406463
0.419195
0.435242
0.454251
0.475591
0.498379
0.49929
0.478295
0.458364
0.439928
0.423245
0.408465
0.395697
0.385049
0.37666
0.370706
0.367404
0.367021
0.369927
0.376483
0.386993
0.401639
0.420396
0.442923
0.468484
0.495962
0.497277
0.472429
0.449032
0.427589
0.408343
0.391389
0.376776
0.364567
0.354874
0.347873
0.343808
0.342989
0.345867
0.352914
0.364576
0.381195
0.402893
0.429406
0.459924
0.493036
0.494776
0.465214
0.437711
0.412849
0.390805
0.371563
0.355064
0.341286
0.330285
0.322217
0.317335
0.315991
0.318714
0.326102
0.338783
0.357336
0.382133
0.413108
0.449457
0.489432
0.49154
0.456014
0.423559
0.394805
0.369762
0.348208
0.329896
0.314662
0.302467
0.293408
0.287729
0.285806
0.288229
0.295732
0.30917
0.329447
0.357343
0.393195
0.436398
0.484876
0.487122
0.443745
0.405215
0.372071
0.343944
0.320229
0.300381
0.284007
0.270914
0.261104
0.254767
0.252277
0.254254
0.261558
0.275301
0.296817
0.327507
0.368443
0.419639
0.478893
0.480646
0.42646
0.380413
0.342496
0.311492
0.286116
0.265353
0.248466
0.235043
0.224956
0.218278
0.215346
0.216753
0.223455
0.236804
0.258653
0.291282
0.336994
0.397264
0.470552
0.470159
0.400403
0.34528
0.30275
0.269771
0.243876
0.223399
0.207104
0.194293
0.184646
0.178144
0.175056
0.175871
0.181512
0.193485
0.214158
0.246952
0.29598
0.365765
0.457771
0.450479
0.357811
0.29312
0.247884
0.215591
0.191602
0.173284
0.159071
0.148068
0.139817
0.134197
0.131384
0.131723
0.135998
0.145636
0.163104
0.192587
0.241055
0.318408
0.43515
0.404818
0.281715
0.21323
0.172378
0.145871
0.127438
0.113981
0.103857
0.0961709
0.090459
0.0865545
0.0845353
0.0845907
0.087254
0.0935905
0.105636
0.127387
0.167054
0.241956
0.386388
0.267052
0.138885
0.0925366
0.0709873
0.0589694
0.0513533
0.0461007
0.0422856
0.0394497
0.0373646
0.0359418
0.0351918
0.0351702
0.0360664
0.0382877
0.0426921
0.0512675
0.0694118
0.114661
0.253575
)
;

boundaryField
{
    movingWall
    {
        type            calculated;
        value           uniform 0.01;
    }
    fixedWalls
    {
        type            calculated;
        value           uniform 0.51;
    }
    frontAndBack
    {
        type            empty;
    }
}


// ************************************************************************* //
