/*--------------------------------*- C++ -*----------------------------------*\
  =========                 |
  \\      /  F ield         | OpenFOAM: The Open Source CFD Toolbox
   \\    /   O peration     | Website:  https://openfoam.org
    \\  /    A nd           | Version:  10
     \\/     M anipulation  |
\*---------------------------------------------------------------------------*/
FoamFile
{
    format      ascii;
    class       volScalarField;
    location    "0.3";
    object      T;
}
// * * * * * * * * * * * * * * * * * * * * * * * * * * * * * * * * * * * * * //

dimensions      [0 0 0 1 0 0 0];

internalField   nonuniform List<scalar> 
400
(
249.965
249.895
249.827
249.763
249.705
249.653
249.609
249.573
249.547
249.531
249.525
249.531
249.549
249.578
249.619
249.671
249.733
249.803
249.88
249.959
249.893
249.682
249.478
249.285
249.109
248.952
248.819
248.711
248.632
248.583
248.566
248.583
248.635
248.724
248.847
249.005
249.192
249.404
249.635
249.877
249.819
249.462
249.118
248.793
248.496
248.231
248.006
247.823
247.689
247.605
247.575
247.603
247.69
247.838
248.046
248.312
248.629
248.989
249.38
249.791
249.742
249.232
248.74
248.278
247.853
247.476
247.154
246.893
246.699
246.577
246.532
246.568
246.69
246.899
247.195
247.574
248.028
248.545
249.108
249.7
249.659
248.987
248.339
247.729
247.17
246.673
246.247
245.901
245.643
245.478
245.414
245.456
245.611
245.883
246.271
246.771
247.373
248.059
248.81
249.599
249.57
248.722
247.904
247.136
246.432
245.806
245.268
244.83
244.5
244.286
244.198
244.243
244.43
244.766
245.251
245.881
246.644
247.518
248.477
249.487
249.472
248.43
247.428
246.487
245.625
244.858
244.199
243.658
243.248
242.978
242.859
242.901
243.119
243.52
244.109
244.88
245.821
246.905
248.099
249.359
249.363
248.106
246.899
245.768
244.734
243.812
243.019
242.365
241.864
241.528
241.371
241.405
241.65
242.118
242.815
243.741
244.879
246.201
247.663
249.212
249.239
247.74
246.304
244.962
243.737
242.647
241.705
240.926
240.324
239.912
239.707
239.726
239.993
240.527
241.339
242.432
243.791
245.383
247.156
249.04
249.096
247.32
245.625
244.047
242.611
241.335
240.233
239.316
238.601
238.102
237.84
237.835
238.118
238.715
239.646
240.919
242.524
244.425
246.559
248.838
248.929
246.829
244.836
242.993
241.324
239.847
238.57
237.505
236.666
236.071
235.74
235.702
235.993
236.648
237.699
239.164
241.04
243.292
245.848
248.596
248.728
246.243
243.903
241.759
239.834
238.139
236.678
235.457
234.487
233.787
233.381
233.299
233.587
234.291
235.458
237.12
239.289
241.941
244.992
248.304
248.478
245.521
242.771
240.285
238.08
236.156
234.506
233.129
232.029
231.222
230.734
230.599
230.871
231.61
232.878
234.734
237.213
240.311
243.946
247.943
248.154
244.601
241.356
238.48
235.976
233.821
231.99
230.466
229.247
228.341
227.773
227.581
227.823
228.573
229.917
231.945
234.734
238.32
242.64
247.488
247.712
243.375
239.521
236.207
233.394
231.023
229.038
227.401
226.091
225.11
224.477
224.228
224.425
225.156
226.53
228.682
231.751
235.844
240.964
246.889
247.065
241.646
237.041
233.25
230.149
227.612
225.535
223.847
222.504
221.496
220.828
220.535
220.675
221.346
222.68
224.865
228.128
232.699
238.726
246.055
246.016
239.04
233.528
229.275
225.977
223.388
221.34
219.71
218.429
217.465
216.814
216.506
216.587
217.151
218.348
220.416
223.695
228.598
235.576
244.777
244.048
234.781
228.312
223.788
220.559
218.16
216.328
214.907
213.807
212.982
212.42
212.138
212.172
212.6
213.564
215.31
218.259
223.106
230.841
242.515
239.482
227.172
220.323
216.238
213.587
211.744
210.398
209.386
208.617
208.046
207.655
207.454
207.459
207.725
208.359
209.564
211.739
215.705
223.196
237.639
225.705
212.888
208.254
206.099
204.897
204.135
203.61
203.229
202.945
202.736
202.594
202.519
202.517
202.607
202.829
203.269
204.127
205.941
210.466
224.358
)
;

boundaryField
{
    movingWall
    {
        type            fixedValue;
        value           uniform 200;
    }
    fixedWalls
    {
        type            fixedValue;
        value           uniform 250;
    }
    frontAndBack
    {
        type            empty;
    }
}


// ************************************************************************* //
