/*--------------------------------*- C++ -*----------------------------------*\
  =========                 |
  \\      /  F ield         | OpenFOAM: The Open Source CFD Toolbox
   \\    /   O peration     | Website:  https://openfoam.org
    \\  /    A nd           | Version:  10
     \\/     M anipulation  |
\*---------------------------------------------------------------------------*/
FoamFile
{
    format      ascii;
    class       volScalarField;
    location    "0.5";
    object      D;
}
// * * * * * * * * * * * * * * * * * * * * * * * * * * * * * * * * * * * * * //

dimensions      [0 2 -1 0 0 0 0];

internalField   nonuniform List<scalar> 
400
(
0.509658
0.508982
0.508328
0.507712
0.507146
0.506643
0.506213
0.505865
0.505608
0.505449
0.505393
0.505445
0.505611
0.505894
0.506291
0.506797
0.5074
0.508083
0.508826
0.509605
0.508966
0.506923
0.504948
0.503087
0.501378
0.499858
0.498558
0.497507
0.496729
0.496245
0.496071
0.496226
0.496725
0.497576
0.498775
0.500303
0.502126
0.504193
0.506442
0.508802
0.508252
0.504797
0.501461
0.498317
0.495431
0.492863
0.490665
0.488884
0.487562
0.486733
0.486428
0.486676
0.487506
0.488935
0.490955
0.493537
0.496624
0.500131
0.503952
0.507963
0.507501
0.502561
0.497795
0.493304
0.489184
0.485515
0.482371
0.479816
0.47791
0.476703
0.476239
0.476564
0.477724
0.479743
0.482617
0.486308
0.490735
0.495777
0.50128
0.507063
0.506696
0.500169
0.493874
0.487948
0.48251
0.477666
0.473508
0.470118
0.467572
0.465938
0.465278
0.465654
0.467136
0.469762
0.473535
0.47841
0.484284
0.490999
0.498343
0.506073
0.505821
0.49757
0.489618
0.482138
0.475277
0.469161
0.4639
0.459593
0.456335
0.454211
0.453303
0.453696
0.455487
0.458738
0.463464
0.46962
0.477082
0.485651
0.495052
0.504962
0.504855
0.494704
0.484933
0.475753
0.467337
0.45983
0.453359
0.448039
0.443979
0.441287
0.440065
0.440429
0.442508
0.4464
0.452141
0.459692
0.468916
0.479567
0.491301
0.503696
0.503774
0.4915
0.479708
0.468648
0.458521
0.449487
0.441682
0.435235
0.43027
0.426916
0.425303
0.425577
0.427915
0.432457
0.439276
0.448354
0.459544
0.472559
0.486968
0.502232
0.502546
0.48787
0.473806
0.460652
0.448632
0.437914
0.42864
0.420942
0.414959
0.41084
0.408744
0.408855
0.411408
0.416599
0.424556
0.435298
0.448688
0.464401
0.481908
0.50052
0.501128
0.483692
0.467046
0.451543
0.437424
0.424856
0.413971
0.404898
0.397781
0.392788
0.390109
0.389972
0.392677
0.398498
0.407637
0.42018
0.436024
0.45482
0.475937
0.498496
0.49946
0.478796
0.459179
0.441024
0.42458
0.409991
0.397362
0.3868
0.378445
0.372476
0.369115
0.368635
0.371412
0.377813
0.388147
0.402604
0.42116
0.443477
0.468821
0.496075
0.497447
0.472931
0.449845
0.428682
0.409671
0.392903
0.378424
0.366295
0.35663
0.349609
0.34548
0.344559
0.347305
0.354197
0.365684
0.382118
0.403621
0.429933
0.460244
0.493144
0.494942
0.465704
0.438504
0.413912
0.392094
0.373029
0.356655
0.342949
0.331971
0.323878
0.318931
0.317484
0.320076
0.327311
0.339823
0.358197
0.38281
0.413597
0.449753
0.489531
0.491697
0.456479
0.424312
0.395812
0.37098
0.349589
0.33139
0.316221
0.304042
0.294957
0.289213
0.287191
0.289488
0.296845
0.310123
0.330231
0.357957
0.393635
0.436665
0.484965
0.487267
0.444175
0.405907
0.372993
0.345057
0.321487
0.301738
0.285419
0.272339
0.262503
0.256104
0.253524
0.255385
0.262555
0.27615
0.297513
0.328047
0.368828
0.419871
0.478971
0.480775
0.426839
0.381023
0.343305
0.312464
0.287211
0.266532
0.249691
0.236277
0.226167
0.219436
0.216426
0.217732
0.224317
0.237536
0.25925
0.291742
0.33732
0.397458
0.470617
0.470267
0.400719
0.345784
0.303417
0.270569
0.244772
0.224361
0.208102
0.195298
0.185633
0.179089
0.175939
0.176673
0.182219
0.194086
0.214647
0.247326
0.296242
0.36592
0.457823
0.450561
0.35805
0.293499
0.248382
0.216183
0.192265
0.173994
0.159808
0.148811
0.140548
0.134899
0.132042
0.132323
0.136529
0.146089
0.163473
0.192869
0.241251
0.318523
0.435188
0.404869
0.281865
0.213466
0.172685
0.146234
0.127844
0.114416
0.104308
0.0966269
0.0909087
0.0869876
0.0849429
0.0849644
0.0875864
0.0938755
0.10587
0.127566
0.167178
0.242028
0.386412
0.26707
0.138936
0.092616
0.0710902
0.059091
0.0514891
0.0462464
0.0424373
0.0396033
0.0375164
0.0360884
0.0353302
0.0352976
0.0361803
0.038386
0.0427732
0.0513305
0.0694563
0.114688
0.253584
)
;

boundaryField
{
    movingWall
    {
        type            calculated;
        value           uniform 0.01;
    }
    fixedWalls
    {
        type            calculated;
        value           uniform 0.51;
    }
    frontAndBack
    {
        type            empty;
    }
}


// ************************************************************************* //
