/*--------------------------------*- C++ -*----------------------------------*\
  =========                 |
  \\      /  F ield         | OpenFOAM: The Open Source CFD Toolbox
   \\    /   O peration     | Website:  https://openfoam.org
    \\  /    A nd           | Version:  10
     \\/     M anipulation  |
\*---------------------------------------------------------------------------*/
FoamFile
{
    format      ascii;
    class       volScalarField;
    location    "0.5";
    object      T;
}
// * * * * * * * * * * * * * * * * * * * * * * * * * * * * * * * * * * * * * //

dimensions      [0 0 0 1 0 0 0];

internalField   nonuniform List<scalar> 
400
(
249.966
249.898
249.833
249.771
249.715
249.664
249.621
249.587
249.561
249.545
249.539
249.544
249.561
249.589
249.629
249.68
249.74
249.808
249.883
249.96
249.897
249.692
249.495
249.309
249.138
248.986
248.856
248.751
248.673
248.624
248.607
248.623
248.673
248.758
248.878
249.03
249.213
249.419
249.644
249.88
249.825
249.48
249.146
248.832
248.543
248.286
248.066
247.888
247.756
247.673
247.643
247.668
247.751
247.893
248.096
248.354
248.662
249.013
249.395
249.796
249.75
249.256
248.779
248.33
247.918
247.551
247.237
246.982
246.791
246.67
246.624
246.656
246.772
246.974
247.262
247.631
248.073
248.578
249.128
249.706
249.67
249.017
248.387
247.795
247.251
246.767
246.351
246.012
245.757
245.594
245.528
245.565
245.714
245.976
246.353
246.841
247.428
248.1
248.834
249.607
249.582
248.757
247.962
247.214
246.528
245.916
245.39
244.959
244.633
244.421
244.33
244.37
244.549
244.874
245.346
245.962
246.708
247.565
248.505
249.496
249.486
248.47
247.493
246.575
245.734
244.983
244.336
243.804
243.398
243.129
243.007
243.043
243.251
243.64
244.214
244.969
245.892
246.957
248.13
249.37
249.377
248.15
246.971
245.865
244.852
243.949
243.168
242.523
242.027
241.692
241.53
241.558
241.791
242.246
242.928
243.835
244.954
246.256
247.697
249.223
249.255
247.787
246.381
245.065
243.863
242.791
241.864
241.094
240.496
240.084
239.874
239.886
240.141
240.66
241.456
242.53
243.869
245.44
247.191
249.052
249.113
247.369
245.705
244.154
242.742
241.486
240.397
239.49
238.778
238.279
238.011
237.997
238.268
238.85
239.764
241.018
242.602
244.482
246.594
248.85
248.946
246.88
244.918
243.102
241.458
239.999
238.736
237.68
236.844
236.248
235.912
235.863
236.141
236.781
237.815
239.26
241.116
243.348
245.882
248.608
248.745
246.293
243.985
241.868
239.967
238.29
236.842
235.629
234.663
233.961
233.548
233.456
233.731
234.42
235.568
237.212
239.362
241.993
245.024
248.314
248.494
245.57
242.85
240.391
238.209
236.303
234.666
233.295
232.197
231.388
230.893
230.748
231.008
231.731
232.982
234.82
237.281
240.36
243.975
247.953
248.17
244.648
241.431
238.581
236.098
233.959
232.139
230.622
229.404
228.496
227.921
227.719
227.949
228.685
230.012
232.023
234.796
238.364
242.666
247.497
247.727
243.417
239.591
236.299
233.506
231.149
229.174
227.542
226.234
225.25
224.61
224.352
224.538
225.255
226.615
228.751
231.805
235.883
240.987
246.897
247.078
241.684
237.102
233.33
230.246
227.721
225.653
223.969
222.628
221.617
220.944
220.643
220.773
221.432
222.754
224.925
228.174
232.732
238.746
246.062
246.027
239.072
233.578
229.342
226.057
223.477
221.436
219.81
218.53
217.563
216.909
216.594
216.667
217.222
218.409
220.465
223.733
228.624
235.592
244.782
244.056
234.805
228.35
223.838
220.618
218.227
216.399
214.981
213.881
213.055
212.49
212.204
212.232
212.653
213.609
215.347
218.287
223.125
230.852
242.519
239.487
227.186
220.347
216.268
213.623
211.784
210.442
209.431
208.663
208.091
207.699
207.494
207.496
207.759
208.388
209.587
211.757
215.718
223.203
237.641
225.707
212.894
208.262
206.109
204.909
204.149
203.625
203.244
202.96
202.752
202.609
202.533
202.53
202.618
202.839
203.277
204.133
205.946
210.469
224.358
)
;

boundaryField
{
    movingWall
    {
        type            fixedValue;
        value           uniform 200;
    }
    fixedWalls
    {
        type            fixedValue;
        value           uniform 250;
    }
    frontAndBack
    {
        type            empty;
    }
}


// ************************************************************************* //
