/*--------------------------------*- C++ -*----------------------------------*\
  =========                 |
  \\      /  F ield         | OpenFOAM: The Open Source CFD Toolbox
   \\    /   O peration     | Website:  https://openfoam.org
    \\  /    A nd           | Version:  10
     \\/     M anipulation  |
\*---------------------------------------------------------------------------*/
FoamFile
{
    format      ascii;
    class       volScalarField;
    location    "0.4";
    object      D;
}
// * * * * * * * * * * * * * * * * * * * * * * * * * * * * * * * * * * * * * //

dimensions      [0 2 -1 0 0 0 0];

internalField   nonuniform List<scalar> 
400
(
0.509657
0.508977
0.508321
0.507702
0.507134
0.506629
0.506197
0.505848
0.505591
0.505431
0.505375
0.505428
0.505596
0.505879
0.506279
0.506786
0.507391
0.508077
0.508822
0.509603
0.508962
0.506909
0.504927
0.503058
0.501342
0.499816
0.498512
0.497457
0.496678
0.496193
0.49602
0.496177
0.496679
0.497534
0.498738
0.500271
0.5021
0.504174
0.506431
0.508798
0.508245
0.504775
0.501426
0.498269
0.495372
0.492794
0.490589
0.488803
0.487478
0.486648
0.486344
0.486595
0.487431
0.488865
0.490894
0.493485
0.496583
0.500101
0.503933
0.507957
0.507491
0.502532
0.497746
0.493239
0.489103
0.485421
0.482267
0.479706
0.477795
0.476587
0.476125
0.476454
0.477621
0.479649
0.482534
0.486237
0.490678
0.495736
0.501255
0.507054
0.506683
0.500132
0.493814
0.487866
0.482409
0.477549
0.473378
0.46998
0.467429
0.465794
0.465136
0.465518
0.467008
0.469645
0.473432
0.478323
0.484215
0.490948
0.498313
0.506062
0.505806
0.497525
0.489546
0.482041
0.475158
0.469023
0.463748
0.459432
0.456168
0.454043
0.453138
0.453538
0.455339
0.458603
0.463346
0.469519
0.477002
0.485592
0.495016
0.50495
0.504838
0.494654
0.484852
0.475643
0.467202
0.459675
0.453188
0.447857
0.443791
0.441098
0.439881
0.440252
0.442344
0.44625
0.452009
0.459581
0.468827
0.479503
0.491262
0.503683
0.503756
0.491446
0.479619
0.468528
0.458373
0.449317
0.441495
0.435037
0.430066
0.426712
0.425104
0.425387
0.427738
0.432297
0.439136
0.448235
0.459449
0.47249
0.486927
0.502218
0.502526
0.487811
0.47371
0.460523
0.448474
0.437733
0.428442
0.420733
0.414744
0.410626
0.408535
0.408657
0.411224
0.416433
0.424411
0.435176
0.448591
0.46433
0.481865
0.500506
0.501108
0.483631
0.466946
0.451408
0.43726
0.424668
0.413766
0.404681
0.397559
0.392568
0.389896
0.38977
0.392491
0.39833
0.407491
0.420057
0.435926
0.454749
0.475894
0.498481
0.499438
0.478734
0.459077
0.440887
0.424413
0.409801
0.397154
0.386581
0.378222
0.372255
0.368902
0.368433
0.371226
0.377647
0.388003
0.402483
0.421065
0.443408
0.468779
0.496061
0.497425
0.472868
0.449743
0.428545
0.409505
0.392714
0.378218
0.366079
0.35641
0.349392
0.345271
0.344363
0.347126
0.354036
0.365546
0.382003
0.40353
0.429867
0.460204
0.493131
0.494921
0.465642
0.438405
0.413779
0.391933
0.372846
0.356456
0.342741
0.33176
0.32367
0.318732
0.317298
0.319906
0.32716
0.339694
0.35809
0.382726
0.413536
0.449716
0.489519
0.491678
0.456421
0.424218
0.395686
0.370828
0.349416
0.331203
0.316026
0.303845
0.294763
0.289028
0.287018
0.289331
0.296706
0.310004
0.330134
0.35788
0.39358
0.436631
0.484954
0.487249
0.444121
0.405821
0.372878
0.344917
0.32133
0.301568
0.285243
0.272161
0.262328
0.255937
0.253368
0.255244
0.262431
0.276044
0.297426
0.32798
0.36878
0.419842
0.478961
0.480759
0.426791
0.380947
0.343203
0.312342
0.287074
0.266384
0.249538
0.236123
0.226015
0.219292
0.216291
0.217609
0.224209
0.237445
0.259175
0.291685
0.337279
0.397434
0.470609
0.470254
0.400679
0.345721
0.303333
0.270469
0.24466
0.224241
0.207977
0.195173
0.18551
0.178971
0.175828
0.176573
0.182131
0.194011
0.214586
0.247279
0.29621
0.365901
0.457817
0.450551
0.35802
0.293452
0.24832
0.216109
0.192182
0.173905
0.159716
0.148718
0.140457
0.134811
0.13196
0.132248
0.136463
0.146032
0.163427
0.192834
0.241227
0.318509
0.435183
0.404862
0.281846
0.213436
0.172647
0.146188
0.127793
0.114361
0.104252
0.0965699
0.0908525
0.0869335
0.084892
0.0849178
0.0875449
0.09384
0.10584
0.127543
0.167163
0.242019
0.386409
0.267068
0.13893
0.0926061
0.0710773
0.0590758
0.0514721
0.0462282
0.0424183
0.0395841
0.0374974
0.0360701
0.0353129
0.0352817
0.0361661
0.0383738
0.0427631
0.0513226
0.0694508
0.114685
0.253583
)
;

boundaryField
{
    movingWall
    {
        type            calculated;
        value           uniform 0.01;
    }
    fixedWalls
    {
        type            calculated;
        value           uniform 0.51;
    }
    frontAndBack
    {
        type            empty;
    }
}


// ************************************************************************* //
