/*--------------------------------*- C++ -*----------------------------------*\
  =========                 |
  \\      /  F ield         | OpenFOAM: The Open Source CFD Toolbox
   \\    /   O peration     | Website:  https://openfoam.org
    \\  /    A nd           | Version:  10
     \\/     M anipulation  |
\*---------------------------------------------------------------------------*/
FoamFile
{
    format      ascii;
    class       volScalarField;
    location    "0.4";
    object      T;
}
// * * * * * * * * * * * * * * * * * * * * * * * * * * * * * * * * * * * * * //

dimensions      [0 0 0 1 0 0 0];

internalField   nonuniform List<scalar> 
400
(
249.966
249.898
249.832
249.77
249.713
249.663
249.62
249.585
249.559
249.543
249.538
249.543
249.56
249.588
249.628
249.679
249.739
249.808
249.882
249.96
249.896
249.691
249.493
249.306
249.134
248.982
248.851
248.746
248.668
248.619
248.602
248.618
248.668
248.753
248.874
249.027
249.21
249.417
249.643
249.88
249.824
249.478
249.143
248.827
248.537
248.279
248.059
247.88
247.748
247.665
247.634
247.659
247.743
247.887
248.089
248.349
248.658
249.01
249.393
249.796
249.749
249.253
248.775
248.324
247.91
247.542
247.227
246.971
246.78
246.659
246.613
246.645
246.762
246.965
247.253
247.624
248.068
248.574
249.125
249.705
249.668
249.013
248.381
247.787
247.241
246.755
246.338
245.998
245.743
245.579
245.514
245.552
245.701
245.965
246.343
246.832
247.421
248.095
248.831
249.606
249.581
248.753
247.955
247.204
246.516
245.902
245.375
244.943
244.617
244.404
244.314
244.354
244.534
244.86
245.335
245.952
246.7
247.559
248.502
249.495
249.484
248.465
247.485
246.564
245.72
244.967
244.319
243.786
243.379
243.11
242.988
243.025
243.234
243.625
244.201
244.958
245.883
246.95
248.126
249.368
249.376
248.145
246.962
245.853
244.837
243.932
243.15
242.504
242.007
241.671
241.51
241.539
241.774
242.23
242.914
243.824
244.945
246.249
247.693
249.222
249.253
247.781
246.371
245.052
243.847
242.773
241.844
241.073
240.474
240.063
239.854
239.866
240.122
240.643
241.441
242.518
243.859
245.433
247.186
249.051
249.111
247.363
245.695
244.141
242.726
241.467
240.377
239.468
238.756
238.257
237.99
237.977
238.249
238.833
239.749
241.006
242.593
244.475
246.589
248.848
248.944
246.873
244.908
243.089
241.441
239.98
238.715
237.658
236.822
236.225
235.89
235.843
236.123
236.765
237.8
239.248
241.106
243.341
245.878
248.606
248.743
246.287
243.974
241.855
239.951
238.271
236.822
235.608
234.641
233.939
233.527
233.436
233.713
234.404
235.555
237.2
239.353
241.987
245.02
248.313
248.492
245.564
242.841
240.378
238.193
236.285
234.646
233.274
232.176
231.367
230.873
230.73
230.991
231.716
232.969
234.809
237.273
240.354
243.972
247.952
248.168
244.642
241.422
238.569
236.083
233.942
232.12
230.603
229.385
228.476
227.903
227.702
227.933
228.671
230
232.013
234.788
238.358
242.663
247.495
247.725
243.412
239.582
236.288
233.492
231.133
229.157
227.524
226.216
225.233
224.594
224.337
224.524
225.243
226.604
228.743
231.798
235.878
240.984
246.896
247.076
241.679
237.095
233.32
230.234
227.707
225.638
223.954
222.612
221.602
220.929
220.629
220.761
221.421
222.744
224.918
228.168
232.728
238.743
246.061
246.025
239.068
233.572
229.333
226.047
223.466
221.424
219.798
218.517
217.551
216.897
216.583
216.657
217.213
218.401
220.459
223.728
228.621
235.59
244.782
244.055
234.802
228.345
223.832
220.611
218.218
216.391
214.972
213.872
213.046
212.481
212.196
212.225
212.646
213.603
215.343
218.283
223.123
230.851
242.518
239.486
227.185
220.344
216.265
213.619
211.779
210.436
209.425
208.657
208.085
207.693
207.489
207.492
207.754
208.384
209.584
211.754
215.716
223.202
237.641
225.707
212.893
208.261
206.108
204.908
204.147
203.623
203.242
202.958
202.75
202.607
202.531
202.528
202.617
202.837
203.276
204.132
205.945
210.468
224.358
)
;

boundaryField
{
    movingWall
    {
        type            fixedValue;
        value           uniform 200;
    }
    fixedWalls
    {
        type            fixedValue;
        value           uniform 250;
    }
    frontAndBack
    {
        type            empty;
    }
}


// ************************************************************************* //
