/*--------------------------------*- C++ -*----------------------------------*\
  =========                 |
  \\      /  F ield         | OpenFOAM: The Open Source CFD Toolbox
   \\    /   O peration     | Website:  https://openfoam.org
    \\  /    A nd           | Version:  10
     \\/     M anipulation  |
\*---------------------------------------------------------------------------*/
FoamFile
{
    format      ascii;
    class       volScalarField;
    location    "0.1";
    object      D;
}
// * * * * * * * * * * * * * * * * * * * * * * * * * * * * * * * * * * * * * //

dimensions      [0 2 -1 0 0 0 0];

internalField   nonuniform List<scalar> 
400
(
0.509039
0.507144
0.505329
0.503644
0.502132
0.500831
0.499768
0.498964
0.498432
0.498178
0.498201
0.498499
0.499068
0.4999
0.500979
0.502284
0.503784
0.505444
0.50722
0.509066
0.507123
0.501451
0.496021
0.490981
0.486462
0.482572
0.479398
0.476998
0.475411
0.474654
0.474725
0.475616
0.477318
0.479805
0.483029
0.486927
0.491411
0.496371
0.501682
0.507204
0.505227
0.495818
0.486816
0.478466
0.470984
0.46455
0.459301
0.455336
0.452716
0.451467
0.451588
0.453066
0.455884
0.459996
0.465329
0.471776
0.479195
0.487409
0.496208
0.505364
0.503362
0.490282
0.477774
0.466182
0.455805
0.44689
0.439624
0.43414
0.430519
0.428796
0.428969
0.431021
0.434924
0.440616
0.447999
0.456929
0.467212
0.478608
0.490829
0.503554
0.501538
0.484869
0.468939
0.454191
0.441004
0.429687
0.420474
0.413526
0.408942
0.406765
0.406989
0.409591
0.414536
0.421748
0.431104
0.442431
0.455492
0.469986
0.485552
0.501778
0.499758
0.479591
0.460333
0.442522
0.426617
0.412986
0.401902
0.393551
0.388044
0.385426
0.385692
0.388811
0.394739
0.403392
0.414632
0.428261
0.444008
0.46152
0.480362
0.500029
0.498021
0.474442
0.451946
0.431168
0.41264
0.396784
0.383905
0.374208
0.367808
0.364755
0.365038
0.36862
0.375457
0.385458
0.398481
0.414315
0.432663
0.453128
0.475205
0.49829
0.496314
0.469391
0.443735
0.420076
0.399017
0.381021
0.366417
0.35542
0.348146
0.344641
0.344894
0.348863
0.356508
0.367747
0.382443
0.400388
0.421273
0.444665
0.469987
0.496527
0.494619
0.464383
0.435616
0.409144
0.385632
0.365573
0.349305
0.337039
0.328888
0.324891
0.325036
0.329285
0.337611
0.349955
0.366205
0.386175
0.409561
0.435907
0.464563
0.494691
0.492901
0.459321
0.427448
0.398205
0.372304
0.350248
0.332365
0.318848
0.309794
0.305235
0.305161
0.309545
0.31839
0.331677
0.349346
0.371258
0.397145
0.426542
0.458728
0.49271
0.491104
0.454057
0.419017
0.387007
0.358763
0.33477
0.315316
0.300555
0.290556
0.285339
0.284902
0.289237
0.298397
0.312426
0.331348
0.355114
0.383529
0.416155
0.452202
0.490487
0.489143
0.448355
0.409992
0.375171
0.34462
0.318754
0.297785
0.281795
0.270807
0.264824
0.263853
0.267921
0.277143
0.291661
0.31162
0.337116
0.368095
0.404204
0.444609
0.487885
0.486875
0.441841
0.399861
0.362134
0.32931
0.301668
0.279277
0.262113
0.250124
0.243283
0.241608
0.245165
0.25415
0.268829
0.289522
0.316544
0.350083
0.389977
0.435424
0.48471
0.484057
0.433899
0.387812
0.347031
0.312003
0.282756
0.259134
0.240944
0.228028
0.220305
0.217789
0.220594
0.228999
0.24342
0.264407
0.292593
0.328553
0.372517
0.423887
0.480666
0.48025
0.423466
0.372518
0.328514
0.291461
0.260943
0.236464
0.217579
0.203972
0.19548
0.192087
0.193942
0.201398
0.215036
0.235676
0.264386
0.302343
0.350485
0.40882
0.475255
0.474585
0.408614
0.351743
0.304458
0.265834
0.234708
0.210075
0.191126
0.177329
0.168417
0.16429
0.165101
0.171252
0.183473
0.202858
0.231015
0.269994
0.321926
0.388246
0.467524
0.465115
0.385605
0.321621
0.271514
0.232437
0.201979
0.178463
0.160556
0.147459
0.138741
0.134254
0.134132
0.138737
0.148833
0.165743
0.191645
0.229733
0.283907
0.358608
0.455377
0.446663
0.346664
0.275405
0.224618
0.187937
0.160688
0.140181
0.124788
0.113542
0.105914
0.101699
0.100977
0.104024
0.11153
0.124801
0.146167
0.179651
0.232062
0.313146
0.433403
0.402425
0.274737
0.202247
0.158085
0.128961
0.108572
0.0937801
0.0829106
0.0750341
0.0696486
0.0665401
0.0657296
0.0673759
0.0719643
0.0804969
0.0949321
0.119173
0.161333
0.238628
0.385301
0.266214
0.136499
0.0888349
0.0661982
0.0533129
0.0450399
0.039332
0.0352544
0.0323394
0.0303473
0.0291739
0.0288107
0.0293049
0.0308312
0.033777
0.0389754
0.0483858
0.0673754
0.113454
0.253171
)
;

boundaryField
{
    movingWall
    {
        type            calculated;
        value           uniform 0.01;
    }
    fixedWalls
    {
        type            calculated;
        value           uniform 0.51;
    }
    frontAndBack
    {
        type            empty;
    }
}


// ************************************************************************* //
