/*--------------------------------*- C++ -*----------------------------------*\
  =========                 |
  \\      /  F ield         | OpenFOAM: The Open Source CFD Toolbox
   \\    /   O peration     | Website:  https://openfoam.org
    \\  /    A nd           | Version:  10
     \\/     M anipulation  |
\*---------------------------------------------------------------------------*/
FoamFile
{
    format      ascii;
    class       volScalarField;
    location    "0.1";
    object      T;
}
// * * * * * * * * * * * * * * * * * * * * * * * * * * * * * * * * * * * * * //

dimensions      [0 0 0 1 0 0 0];

internalField   nonuniform List<scalar> 
400
(
249.904
249.714
249.533
249.364
249.213
249.083
248.977
248.896
248.843
248.818
248.82
248.85
248.907
248.99
249.098
249.228
249.378
249.544
249.722
249.907
249.712
249.145
248.602
248.098
247.646
247.257
246.94
246.7
246.541
246.465
246.472
246.562
246.732
246.98
247.303
247.693
248.141
248.637
249.168
249.72
249.523
248.582
247.682
246.847
246.098
245.455
244.93
244.534
244.272
244.147
244.159
244.307
244.588
245
245.533
246.178
246.92
247.741
248.621
249.536
249.336
248.028
246.777
245.618
244.581
243.689
242.962
242.414
242.052
241.88
241.897
242.102
242.492
243.062
243.8
244.693
245.721
246.861
248.083
249.355
249.154
247.487
245.894
244.419
243.1
241.969
241.047
240.353
239.894
239.676
239.699
239.959
240.454
241.175
242.11
243.243
244.549
245.999
247.555
249.178
248.976
246.959
245.033
243.252
241.662
240.299
239.19
238.355
237.804
237.543
237.569
237.881
238.474
239.339
240.463
241.826
243.401
245.152
247.036
249.003
248.802
246.444
244.195
242.117
240.264
238.678
237.391
236.421
235.781
235.475
235.504
235.862
236.546
237.546
238.848
240.431
242.266
244.313
246.521
248.829
248.631
245.939
243.374
241.008
238.902
237.102
235.642
234.542
233.815
233.464
233.489
233.886
234.651
235.775
237.244
239.039
241.127
243.466
245.999
248.653
248.462
245.438
242.562
239.914
237.563
235.557
233.931
232.704
231.889
231.489
231.504
231.928
232.761
233.996
235.621
237.617
239.956
242.591
245.456
248.469
248.29
244.932
241.745
238.821
236.23
234.025
232.236
230.885
229.979
229.523
229.516
229.955
230.839
232.168
233.935
236.126
238.714
241.654
244.873
248.271
248.11
244.406
240.902
237.701
234.876
232.477
230.532
229.056
228.056
227.534
227.49
227.924
228.84
230.243
232.135
234.511
237.353
240.615
244.22
248.049
247.914
243.835
239.999
236.517
233.462
230.875
228.778
227.179
226.081
225.482
225.385
225.792
226.714
228.166
230.162
232.712
235.81
239.42
243.461
247.788
247.688
243.184
238.986
235.213
231.931
229.167
226.928
225.211
224.012
223.328
223.161
223.517
224.415
225.883
227.952
230.654
234.008
237.998
242.542
247.471
247.406
242.39
237.781
233.703
230.2
227.276
224.913
223.094
221.803
221.03
220.779
221.059
221.9
223.342
225.441
228.259
231.855
236.252
241.389
247.067
247.025
241.347
236.252
231.851
228.146
225.094
222.646
220.758
219.397
218.548
218.209
218.394
219.14
220.504
222.568
225.439
229.234
234.048
239.882
246.526
246.458
239.861
234.174
229.446
225.583
222.471
220.007
218.113
216.733
215.842
215.429
215.51
216.125
217.347
219.286
222.102
225.999
231.193
237.825
245.752
245.512
237.56
231.162
226.151
222.244
219.198
216.846
215.056
213.746
212.874
212.425
212.413
212.874
213.883
215.574
218.164
221.973
227.391
234.861
244.538
243.666
233.666
226.541
221.462
217.794
215.069
213.018
211.479
210.354
209.591
209.17
209.098
209.402
210.153
211.48
213.617
216.965
222.206
230.315
242.34
239.242
226.474
219.225
214.808
211.896
209.857
208.378
207.291
206.503
205.965
205.654
205.573
205.738
206.196
207.05
208.493
210.917
215.133
222.863
237.53
225.621
212.65
207.883
205.62
204.331
203.504
202.933
202.525
202.234
202.035
201.917
201.881
201.93
202.083
202.378
202.898
203.839
205.738
210.345
224.317
)
;

boundaryField
{
    movingWall
    {
        type            fixedValue;
        value           uniform 200;
    }
    fixedWalls
    {
        type            fixedValue;
        value           uniform 250;
    }
    frontAndBack
    {
        type            empty;
    }
}


// ************************************************************************* //
